30
Lattice="31 0 0 0 31 0 0 0 31" Properties=molecule:I:1:species:S:1:pos:I:3 Time=1000000
1 1 60 -260 -1071
1 2 59 -260 -1071
1 3 59 -259 -1071
1 4 59 -259 -1070
1 5 59 -259 -1069
1 6 59 -260 -1069
1 7 58 -260 -1069
1 8 58 -261 -1069
1 9 58 -261 -1070
1 10 59 -261 -1070
1 11 59 -261 -1069
1 12 59 -262 -1069
1 13 59 -262 -1070
1 14 58 -262 -1070
1 15 58 -263 -1070
1 16 59 -263 -1070
1 17 60 -263 -1070
1 18 61 -263 -1070
1 19 62 -263 -1070
1 20 62 -264 -1070
1 21 63 -264 -1070
1 22 63 -265 -1070
1 23 64 -265 -1070
1 24 64 -265 -1069
1 25 63 -265 -1069
2 26 -529 52 -906
2 27 -529 53 -906
2 28 -530 53 -906
2 29 -530 53 -907
2 30 -530 53 -908